PPG
    70
   3.9740000   2.3750000  -2.0450000   3.5100000   1.9780000  -0.9840000
   4.3960000   1.4840000   0.1060000   5.4540000   0.5720000  -0.1450000
   6.2850000   0.1950000   0.9440000   7.3680000  -0.7060000   0.7470000
   5.7330000   0.0040000  -1.4090000   6.7970000  -0.8830000  -1.6010000
   7.6240000  -1.2430000  -0.5350000   8.7030000  -2.1210000  -0.7200000
   9.5260000  -2.4690000   0.3490000   9.2760000  -1.9470000   1.6170000
   8.2030000  -1.0680000   1.8310000   7.9470000  -0.5390000   3.1020000
   6.8830000   0.3410000   3.3040000   6.0500000   0.7170000   2.2420000
   4.9930000   1.6110000   2.4510000   4.1760000   1.9960000   1.3930000
   2.1590000   1.9590000  -0.7020000   1.1810000   2.4190000  -1.6730000
   0.8240000   1.3510000  -2.7100000  -0.0770000   1.8820000  -3.6810000
  -1.4070000   1.3660000  -3.6060000  -2.2080000   1.9750000  -2.4500000
  -1.9930000   1.2890000  -1.2090000  -2.8080000   0.1220000  -1.0820000
  -2.6760000  -0.4480000   0.3330000  -3.4880000  -1.6080000   0.5240000
  -4.8780000  -1.3110000   0.6710000  -5.6810000  -2.0710000  -0.3850000
  -7.0450000  -1.6550000  -0.4240000  -7.8520000  -2.2450000   0.5970000
  -9.2900000  -1.7290000   0.4700000  -9.4170000  -0.3290000   0.7330000
  -9.2890000   0.0120000   2.1100000  -9.7030000   1.4060000   2.3000000
 -10.0450000   2.5480000   2.4600000   5.1270000   0.2570000  -2.2780000
   6.9730000  -1.2800000  -2.5990000   8.9130000  -2.5370000  -1.7030000
  10.3640000  -3.1430000   0.1920000   9.9310000  -2.2270000   2.4400000
   8.5780000  -0.8050000   3.9480000   6.7160000   0.7360000   4.3040000
   4.8090000   2.0280000   3.4390000   3.3890000   2.7260000   1.5690000
   1.8270000   1.4940000   0.1330000   0.2940000   2.7310000  -1.1150000
   1.5670000   3.3110000  -2.1790000   1.7300000   1.0510000  -3.2500000
   0.4290000   0.4470000  -2.2310000  -1.8890000   1.6560000  -4.5450000
  -1.3750000   0.2710000  -3.5760000  -1.8990000   3.0150000  -2.2950000
  -3.2790000   1.9810000  -2.6860000  -3.8550000   0.3710000  -1.2940000
  -2.4940000  -0.6400000  -1.8070000  -1.6370000  -0.7490000   0.4930000
  -2.8940000   0.3060000   1.0980000  -5.1800000  -1.6390000   1.6730000
  -5.0910000  -0.2350000   0.6200000  -5.6010000  -3.1550000  -0.2430000
  -5.2550000  -1.8630000  -1.3750000  -7.8490000  -3.3330000   0.4670000
  -7.4370000  -2.0050000   1.5780000  -9.6330000  -1.8790000  -0.5610000
  -9.9650000  -2.2890000   1.1290000  -8.2480000  -0.1070000   2.4230000
  -9.9210000  -0.6440000   2.7200000 -10.3470000   3.5630000   2.5890000
