%VERSION  VERSION_STAMP = V0001.000  DATE = 08/18/26  16:19:28                  
%FLAG TITLE                                                                     
%FORMAT(20a4)                                                                   
PPG                                                                             
%FLAG POINTERS                                                                  
%FORMAT(10I8)                                                                   
      70       9      33      40      76      51     130     104       0       0
     368       1      40      51     104      13      20      24      10       0
       0       0       0       0       0       0       0       0      70       0
       0
%FLAG ATOM_NAME                                                                 
%FORMAT(20a4)                                                                   
O   C   C1  C2  C3  C4  C5  C6  C7  C8  C9  C10 C11 C12 C13 C14 C15 C16 N   C17 
C18 O1  C19 C20 O2  C21 C22 O3  C23 C24 O4  C25 C26 O5  C27 C28 C29 H   H1  H2  
H3  H4  H5  H6  H7  H8  H9  H10 H11 H12 H13 H14 H15 H16 H17 H18 H19 H20 H21 H22 
H23 H24 H25 H26 H27 H28 H29 H30 H31 H32 
%FLAG CHARGE                                                                    
%FORMAT(5E16.8)                                                                 
 -1.08628337E+01  1.22211760E+01 -2.38035302E+00  2.54591563E-01 -4.56078137E-01
 -2.55632837E-01 -2.15075204E+00 -1.96852904E+00 -6.56523437E-01 -1.96852904E+00
 -2.33297504E+00 -2.00497364E+00 -6.92968037E-01 -1.87741754E+00 -2.26008584E+00
 -2.55632837E-01 -2.29653044E+00 -1.87741754E+00 -1.03307425E+01  8.19482863E-01
  1.92010978E+00 -7.50081932E+00  1.70144218E+00  1.73788678E+00 -7.81059842E+00
  1.53744148E+00  2.33922268E+00 -7.59193082E+00  1.70144218E+00  1.73788678E+00
 -7.81059842E+00  1.68321988E+00  2.28455578E+00 -7.40970782E+00  3.79882891E+00
 -2.68102097E+00 -2.23275239E+00  2.89682506E+00  2.49593446E+00  2.47771216E+00
  2.45948986E+00  2.45948986E+00  2.45948986E+00  2.45948986E+00  2.51415676E+00
  2.56882366E+00  5.65750351E+00  1.44268552E+00  1.44268552E+00  9.14238823E-01
  9.14238823E-01  9.87128023E-01  9.87128023E-01  1.16935102E+00  1.16935102E+00
  8.04905023E-01  8.04905023E-01  1.08735067E+00  1.08735067E+00  1.06001722E+00
  1.06001722E+00  1.10557297E+00  1.10557297E+00  6.59126623E-01  6.59126623E-01
  1.14201757E+00  1.14201757E+00  8.50460773E-01  8.50460773E-01  3.03349231E+00
%FLAG ATOMIC_NUMBER                                                             
%FORMAT(10I8)                                                                   
       8       6       6       6       6       6       6       6       6       6
       6       6       6       6       6       6       6       6       7       6
       6       8       6       6       8       6       6       8       6       6
       8       6       6       8       6       6       6       1       1       1
       1       1       1       1       1       1       1       1       1       1
       1       1       1       1       1       1       1       1       1       1
       1       1       1       1       1       1       1       1       1       1
%FLAG MASS                                                                      
%FORMAT(5E16.8)                                                                 
  1.60000000E+01  1.20100000E+01  1.20100000E+01  1.20100000E+01  1.20100000E+01
  1.20100000E+01  1.20100000E+01  1.20100000E+01  1.20100000E+01  1.20100000E+01
  1.20100000E+01  1.20100000E+01  1.20100000E+01  1.20100000E+01  1.20100000E+01
  1.20100000E+01  1.20100000E+01  1.20100000E+01  1.40100000E+01  1.20100000E+01
  1.20100000E+01  1.60000000E+01  1.20100000E+01  1.20100000E+01  1.60000000E+01
  1.20100000E+01  1.20100000E+01  1.60000000E+01  1.20100000E+01  1.20100000E+01
  1.60000000E+01  1.20100000E+01  1.20100000E+01  1.60000000E+01  1.20100000E+01
  1.20100000E+01  1.20100000E+01  1.00800000E+00  1.00800000E+00  1.00800000E+00
  1.00800000E+00  1.00800000E+00  1.00800000E+00  1.00800000E+00  1.00800000E+00
  1.00800000E+00  1.00800000E+00  1.00800000E+00  1.00800000E+00  1.00800000E+00
  1.00800000E+00  1.00800000E+00  1.00800000E+00  1.00800000E+00  1.00800000E+00
  1.00800000E+00  1.00800000E+00  1.00800000E+00  1.00800000E+00  1.00800000E+00
  1.00800000E+00  1.00800000E+00  1.00800000E+00  1.00800000E+00  1.00800000E+00
  1.00800000E+00  1.00800000E+00  1.00800000E+00  1.00800000E+00  1.00800000E+00
%FLAG ATOM_TYPE_INDEX                                                           
%FORMAT(10I8)                                                                   
       1       2       2       2       2       2       2       2       2       2
       2       2       2       2       2       2       2       2       3       4
       4       5       4       4       5       4       4       5       4       4
       5       4       4       5       4       6       6       7       7       7
       7       7       7       7       7       7       8       9       9       9
       9       9       9       9       9       9       9       9       9       9
       9       9       9       9       9       9       9       9       9       7
%FLAG NUMBER_EXCLUDED_ATOMS                                                     
%FORMAT(10I8)                                                                   
       7      13      14      14      15      15       7       7      10       7
       6       7       7       6       6       6       4       3       8       8
      10      11       9       9      11       9       9      11       9       9
      11       9       9       9       7       4       3       1       1       1
       1       1       1       1       1       1       2       3       2       1
       1       3       2       1       1       3       2       1       1       3
       2       1       1       3       2       1       1       1       1       1
%FLAG NONBONDED_PARM_INDEX                                                      
%FORMAT(10I8)                                                                   
       1       2       4       7      11      16      22      29      37       2
       3       5       8      12      17      23      30      38       4       5
       6       9      13      18      24      31      39       7       8       9
      10      14      19      25      32      40      11      12      13      14
      15      20      26      33      41      16      17      18      19      20
      21      27      34      42      22      23      24      25      26      27
      28      35      43      29      30      31      32      33      34      35
      36      44      37      38      39      40      41      42      43      44
      45
%FLAG RESIDUE_LABEL                                                             
%FORMAT(20a4)                                                                   
PPG 
%FLAG RESIDUE_POINTER                                                           
%FORMAT(10I8)                                                                   
       1
%FLAG BOND_FORCE_CONSTANT                                                       
%FORMAT(5E16.8)                                                                 
  5.90600000E+02  2.62840000E+02  3.36070000E+02  3.54250000E+02  3.60690000E+02
  2.61660000E+02  4.73590000E+02  2.28890000E+02  3.44220000E+02  2.82270000E+02
  2.84580000E+02  6.99130000E+02  3.92430000E+02
%FLAG BOND_EQUIL_VALUE                                                          
%FORMAT(5E16.8)                                                                 
  1.21900000E+00  1.49070000E+00  1.37980000E+00  1.39860000E+00  1.08600000E+00
  1.45560000E+00  1.01320000E+00  1.53540000E+00  1.09690000E+00  1.42730000E+00
  1.46560000E+00  1.20950000E+00  1.06660000E+00
%FLAG ANGLE_FORCE_CONSTANT                                                      
%FORMAT(5E16.8)                                                                 
  7.79600000E+01  8.72100000E+01  6.14400000E+01  7.69000000E+01  5.73700000E+01
  6.70600000E+01  6.36700000E+01  4.49000000E+01  6.54300000E+01  4.83900000E+01
  5.46200000E+01  7.74400000E+01  4.32800000E+01  8.83300000E+01  5.62000000E+01
  7.89600000E+01  5.35800000E+01  4.51600000E+01  4.10500000E+01  3.56400000E+01
%FLAG ANGLE_EQUIL_VALUE                                                         
%FORMAT(5E16.8)                                                                 
  2.13977458E+00  2.14762857E+00  2.10015559E+00  2.12860447E+00  2.04657396E+00
  2.00870030E+00  2.09474507E+00  2.09230160E+00  1.94935908E+00  1.89350852E+00
  2.04936649E+00  1.87832415E+00  1.91270715E+00  1.98269488E+00  1.92579712E+00
  1.90398050E+00  3.11838111E+00  1.90694756E+00  3.12902762E+00  1.89455572E+00
%FLAG DIHEDRAL_FORCE_CONSTANT                                                   
%FORMAT(5E16.8)                                                                 
  5.80000000E-01  2.50000000E+00  2.00000000E+00  3.62500000E+00  1.15000000E+00
  0.00000000E+00  3.00000000E+00  2.00000000E+00  5.00000000E-01  2.12250000E+00
  1.55555556E-01  8.80000000E-01  8.00000000E-02  7.50000000E-01  0.00000000E+00
  3.37000000E-01  2.50000000E-01  0.00000000E+00  1.80000000E-01  9.00000000E-01
  3.83333333E-01  0.00000000E+00  1.05000000E+01  1.10000000E+00
%FLAG DIHEDRAL_PERIODICITY                                                      
%FORMAT(5E16.8)                                                                 
  2.00000000E+00  2.00000000E+00  1.00000000E+00  2.00000000E+00  1.00000000E+00
  1.00000000E+00  1.00000000E+00  2.00000000E+00  3.00000000E+00  2.00000000E+00
  3.00000000E+00  1.00000000E+00  2.00000000E+00  3.00000000E+00  2.00000000E+00
  3.00000000E+00  1.00000000E+00  3.00000000E+00  1.00000000E+00  2.00000000E+00
  3.00000000E+00  2.00000000E+00  2.00000000E+00  2.00000000E+00
%FLAG DIHEDRAL_PHASE                                                            
%FORMAT(5E16.8)                                                                 
  3.14159400E+00  3.14159400E+00  0.00000000E+00  3.14159400E+00  3.14159400E+00
  0.00000000E+00  3.14159400E+00  3.14159400E+00  0.00000000E+00  3.14159400E+00
  0.00000000E+00  3.14159400E+00  0.00000000E+00  0.00000000E+00  0.00000000E+00
  0.00000000E+00  0.00000000E+00  0.00000000E+00  0.00000000E+00  0.00000000E+00
  0.00000000E+00  3.14159400E+00  3.14159400E+00  3.14159400E+00
%FLAG SCEE_SCALE_FACTOR                                                         
%FORMAT(5E16.8)                                                                 
  1.20000000E+00  1.20000000E+00  1.20000000E+00  1.20000000E+00  1.20000000E+00
  1.20000000E+00  1.20000000E+00  1.20000000E+00  1.20000000E+00  1.20000000E+00
  1.20000000E+00  1.20000000E+00  1.20000000E+00  1.20000000E+00  1.20000000E+00
  1.20000000E+00  1.20000000E+00  1.20000000E+00  1.20000000E+00  1.20000000E+00
  1.20000000E+00  1.20000000E+00  0.00000000E+00  0.00000000E+00
%FLAG SCNB_SCALE_FACTOR                                                         
%FORMAT(5E16.8)                                                                 
  2.00000000E+00  2.00000000E+00  2.00000000E+00  2.00000000E+00  2.00000000E+00
  2.00000000E+00  2.00000000E+00  2.00000000E+00  2.00000000E+00  2.00000000E+00
  2.00000000E+00  2.00000000E+00  2.00000000E+00  2.00000000E+00  2.00000000E+00
  2.00000000E+00  2.00000000E+00  2.00000000E+00  2.00000000E+00  2.00000000E+00
  2.00000000E+00  2.00000000E+00  0.00000000E+00  0.00000000E+00
%FLAG SOLTY                                                                     
%FORMAT(5E16.8)                                                                 
  0.00000000E+00  0.00000000E+00  0.00000000E+00  0.00000000E+00  0.00000000E+00
  0.00000000E+00  0.00000000E+00  0.00000000E+00  0.00000000E+00  0.00000000E+00
%FLAG LENNARD_JONES_ACOEF                                                       
%FORMAT(5E16.8)                                                                 
  3.76435470E+05  5.17507491E+05  6.96551276E+05  5.17814271E+05  6.99381362E+05
  7.01825028E+05  6.30925504E+05  8.43969952E+05  8.48258258E+05  1.02073671E+06
  3.27367585E+05  4.46121722E+05  4.47026838E+05  5.42502534E+05  2.83662575E+05
  8.92208123E+05  1.18640578E+06  1.19359607E+06  1.43239677E+06  7.65280989E+05
  2.00671338E+06  5.27277400E+04  7.52549148E+04  7.48403283E+04  9.27554496E+04
  4.65732396E+04  1.32549375E+05  6.90855956E+03  9.87857350E+02  1.71458823E+03
  1.65195713E+03  2.23577481E+03  9.46795083E+02  3.37137075E+03  9.04434904E+01
  1.34728399E-01  3.86646725E+04  5.63013422E+04  5.58085097E+04  6.97998263E+04
  3.44374471E+04  1.00303788E+05  4.88692384E+03  5.24570081E+01  3.39005767E+03
%FLAG LENNARD_JONES_BCOEF                                                       
%FORMAT(5E16.8)                                                                 
  4.69350655E+02  4.98871431E+02  5.24668528E+02  5.21008860E+02  5.48900066E+02
  5.74088001E+02  5.62969425E+02  5.90251928E+02  6.17825399E+02  6.63431737E+02
  3.67361018E+02  3.88758656E+02  4.06301077E+02  4.38146883E+02  2.87011518E+02
  7.38469198E+02  7.71958727E+02  8.08414196E+02  8.66911122E+02  5.74027680E+02
  1.13185062E+03  1.01173582E+02  1.09570372E+02  1.14083104E+02  1.24325688E+02
  7.98066064E+01  1.63939471E+02  2.10929191E+01  1.22938581E+01  1.46824710E+01
  1.50468782E+01  1.71355763E+01  1.01016461E+01  2.32108730E+01  2.14252117E+00
  7.34107347E-02  9.23664132E+01  1.01040256E+02  1.05029928E+02  1.14981426E+02
  7.31636661E+01  1.52041700E+02  1.89134207E+01  1.73959275E+00  1.67944276E+01
%FLAG BONDS_INC_HYDROGEN                                                        
%FORMAT(10I8)                                                                   
      18     111       5      21     114       5      27     117       5      30
     120       5      33     123       5      39     126       5      42     129
       5      48     132       5      51     135       5      54     138       7
      57     141       9      57     144       9      60     147       9      60
     150       9      66     153       9      66     156       9      69     159
       9      69     162       9      75     165       9      75     168       9
      78     171       9      78     174       9      84     177       9      84
     180       9      87     183       9      87     186       9      93     189
       9      93     192       9      96     195       9      96     198       9
     102     201       9     102     204       9     108     207      13
%FLAG BONDS_WITHOUT_HYDROGEN                                                    
%FORMAT(10I8)                                                                   
       0       3       1       3       6       2       3      54       3       6
       9       4       6      51       4       9      12       4       9      18
       4      12      15       4      12      45       4      15      36       4
      15      24       4      18      21       4      21      24       4      24
      27       4      27      30       4      30      33       4      33      36
       4      36      39       4      39      42       4      42      45       4
      45      48       4      48      51       4      54      57       6      57
      60       8      60      63      10      63      66      10      66      69
       8      69      72      10      72      75      10      75      78       8
      78      81      10      81      84      10      84      87       8      87
      90      10      90      93      10      93      96       8      96      99
      10      99     102      10     102     105      11     105     108      12
%FLAG ANGLES_INC_HYDROGEN                                                       
%FORMAT(10I8)                                                                   
       3      54     138       5       6      51     135       8       9      18
     111       8      18      21     114       8      21      18     111       8
      24      21     114       8      24      27     117       8      27      30
     120       8      30      27     117       8      30      33     123       8
      33      30     120       8      36      33     123       8      36      39
     126       8      39      42     129       8      42      39     126       8
      45      42     129       8      45      48     132       8      48      51
     135       8      51      48     132       8      54      57     141      10
      54      57     144      10      57      54     138      11      57      60
     147      13      57      60     150      13      60      57     141      13
      60      57     144      13      63      60     147      15      63      60
     150      15      63      66     153      15      63      66     156      15
      66      69     159      13      66      69     162      13      69      66
     153      13      69      66     156      13      72      69     159      15
      72      69     162      15      72      75     165      15      72      75
     168      15      75      78     171      13      75      78     174      13
      78      75     165      13      78      75     168      13      81      78
     171      15      81      78     174      15      81      84     177      15
      81      84     180      15      84      87     183      13      84      87
     186      13      87      84     177      13      87      84     180      13
      90      87     183      15      90      87     186      15      90      93
     189      15      90      93     192      15      93      96     195      13
      93      96     198      13      96      93     189      13      96      93
     192      13      99      96     195      15      99      96     198      15
      99     102     201      15      99     102     204      15     105     102
     201      18     105     102     204      18     105     108     207      19
     141      57     144      20     147      60     150      20     153      66
     156      20     159      69     162      20     165      75     168      20
     171      78     174      20     177      84     180      20     183      87
     186      20     189      93     192      20     195      96     198      20
     201     102     204      20
%FLAG ANGLES_WITHOUT_HYDROGEN                                                   
%FORMAT(10I8)                                                                   
       0       3       6       1       0       3      54       2       3       6
       9       3       3       6      51       3       3      54      57       4
       6       3      54       6       6       9      12       7       6       9
      18       7       6      51      48       7       9       6      51       7
       9      12      15       7       9      12      45       7       9      18
      21       7      12       9      18       7      12      15      36       7
      12      15      24       7      12      45      42       7      12      45
      48       7      15      12      45       7      15      36      33       7
      15      36      39       7      15      24      21       7      15      24
      27       7      18      21      24       7      21      24      27       7
      24      27      30       7      24      15      36       7      27      30
      33       7      30      33      36       7      33      36      39       7
      36      39      42       7      39      42      45       7      42      45
      48       7      45      48      51       7      54      57      60       9
      57      60      63      12      60      63      66      14      63      66
      69      12      66      69      72      12      69      72      75      14
      72      75      78      12      75      78      81      12      78      81
      84      14      81      84      87      12      84      87      90      12
      87      90      93      14      90      93      96      12      93      96
      99      12      96      99     102      14      99     102     105      16
     102     105     108      17
%FLAG DIHEDRALS_INC_HYDROGEN                                                    
%FORMAT(10I8)                                                                   
       0       3      54     138       3       0       3     -54     138       2
       3       6      51     135       4       3      54      57     141       6
       3      54      57     144       6       6       3      54     138       2
       6       9      18     111       4       6      51      48     132       4
       9       6      51     135       4       9      18      21     114       4
      12       9      18     111       4      12      45      42     129       4
      12      45      48     132       4      15      36      33     123       4
      15      36      39     126       4      15      24      21     114       4
      15      24      27     117       4      21      24      27     117       4
      24      21      18     111       4      24      27      30     120       4
      27      24      21     114       4      27      30      33     123       4
      33      30      27     117       4      33      36      39     126       4
      36      33      30     120       4      36      39      42     129       4
      39      36      33     123       4      42      45      48     132       4
      45      42      39     126       4      45      48      51     135       4
      48      45      42     129       4      54      57      60     147      11
      54      57      60     150      11      60      57      54     138      15
      60      63      66     153      16      60      63      66     156      16
      63      60      57     141      17      63      60     -57     141      18
      63      60      57     144      17      63      60     -57     144      18
      63      66      69     159      17      63      66     -69     159      18
      63      66      69     162      17      63      66     -69     162      18
      66      63      60     147      16      66      63      60     150      16
      69      72      75     165      16      69      72      75     168      16
      72      69      66     153      17      72      69     -66     153      18
      72      69      66     156      17      72      69     -66     156      18
      72      75      78     171      17      72      75     -78     171      18
      72      75      78     174      17      72      75     -78     174      18
      75      72      69     159      16      75      72      69     162      16
      78      81      84     177      16      78      81      84     180      16
      81      78      75     165      17      81      78     -75     165      18
      81      78      75     168      17      81      78     -75     168      18
      81      84      87     183      17      81      84     -87     183      18
      81      84      87     186      17      81      84     -87     186      18
      84      81      78     171      16      84      81      78     174      16
      87      90      93     189      16      87      90      93     192      16
      90      87      84     177      17      90      87     -84     177      18
      90      87      84     180      17      90      87     -84     180      18
      90      93      96     195      17      90      93     -96     195      18
      90      93      96     198      17      90      93     -96     198      18
      93      90      87     183      16      93      90      87     186      16
      96      99     102     201      16      96      99     102     204      16
      99      96      93     189      17      99      96     -93     189      18
      99      96      93     192      17      99      96     -93     192      18
     102      99      96     195      16     102      99      96     198      16
     102     105     108     207      22     108     105     102     201      22
     108     105     102     204      22     111      18      21     114       4
     117      27      30     120       4     120      30      33     123       4
     126      39      42     129       4     132      48      51     135       4
     138      54      57     141      15     138      54      57     144      15
     141      57      60     147      11     141      57      60     150      11
     144      57      60     147      11     144      57      60     150      11
     153      66      69     159      11     153      66      69     162      11
     156      66      69     159      11     156      66      69     162      11
     165      75      78     171      11     165      75      78     174      11
     168      75      78     171      11     168      75      78     174      11
     177      84      87     183      11     177      84      87     186      11
     180      84      87     183      11     180      84      87     186      11
     189      93      96     195      11     189      93      96     198      11
     192      93      96     195      11     192      93      96     198      11
       9      21     -18    -111      24      18      24     -21    -114      24
      24      30     -27    -117      24      27      33     -30    -120      24
      30      36     -33    -123      24      36      42     -39    -126      24
      39      45     -42    -129      24      45      51     -48    -132      24
       6      48     -51    -135      24       3      57     -54    -138      24
%FLAG DIHEDRALS_WITHOUT_HYDROGEN                                                
%FORMAT(10I8)                                                                   
       0       3       6       9       1       0       3       6      51       1
       0       3      54      57       2       3       6       9      12       4
       3       6       9      18       4       3       6      51      48       4
       3      54      57      60       5       6       3      54      57       7
       6       3     -54      57       8       6       3     -54      57       9
       6       9      12      15       4       6       9      12      45       4
       6       9      18      21       4       6      51     -48      45       4
       9       6       3      54      10       9       6      51      48       4
       9      12      15      36       4       9      12      15      24       4
       9      12      45      42       4       9      12     -45      48       4
       9      18     -21      24       4      12       9       6      51       4
      12       9      18      21       4      12      15      36      33       4
      12      15      36      39       4      12      15     -24      21       4
      12      15      24      27       4      12      45     -42      39       4
      12      45     -48      51       4      15      12       9      18       4
      15      12      45      42       4      15      12      45      48       4
      15      36      33      30       4      15      36     -39      42       4
      15      24     -21      18       4      15      24     -27      30       4
      18       9       6      51       4      18       9      12      45       4
      18      21      24      27       4      21      24      27      30       4
      21      24      15      36       4      24      27      30      33       4
      24      15      12      45       4      24      15     -36      33       4
      24      15      36      39       4      27      24      15      36       4
      27      30     -33      36       4      30      33      36      39       4
      33      36      39      42       4      36      39      42      45       4
      36      15     -12      45       4      39      42      45      48       4
      42      45      48      51       4      51       6       3      54      10
      54      57      60      63      11      57      60      63      66      12
      57      60     -63      66      13      57      60     -63      66      14
      60      63      66      69      12      60      63     -66      69      13
      60      63     -66      69      14      63      66      69      72      19
      63      66     -69      72      20      63      66     -69      72       9
      66      69      72      75      12      66      69     -72      75      13
      66      69     -72      75      14      69      72      75      78      12
      69      72     -75      78      13      69      72     -75      78      14
      72      75      78      81      19      72      75     -78      81      20
      72      75     -78      81       9      75      78      81      84      12
      75      78     -81      84      13      75      78     -81      84      14
      78      81      84      87      12      78      81     -84      87      13
      78      81     -84      87      14      81      84      87      90      19
      81      84     -87      90      20      81      84     -87      90       9
      84      87      90      93      12      84      87     -90      93      13
      84      87     -90      93      14      87      90      93      96      12
      87      90     -93      96      13      87      90     -93      96      14
      90      93      96      99      19      90      93     -96      99      20
      90      93     -96      99       9      93      96      99     102      12
      93      96     -99     102      13      93      96     -99     102      14
      96      99     102     105      21      99     102     105     108      22
       0       3     -54      -6      23       3       9      -6     -51      24
       6      12      -9     -18      24       9      15     -12     -45      24
      12      24     -15     -36      24      15      21     -24     -27      24
      15      33     -36     -39      24      12      42     -45     -48      24
%FLAG EXCLUDED_ATOMS_LIST                                                       
%FORMAT(10I8)                                                                   
       2       3       4      18      19      20      47       3       4       5
       7      17      18      19      20      21      46      47      48      49
       4       5       6       7       8      16      17      18      19      20
      38      45      46      47       5       6       7       8       9      13
      15      16      17      18      19      38      39      46       6       7
       8       9      10      12      13      14      15      16      17      18
      38      44      45       7       8       9      10      11      12      13
      14      15      16      17      39      40      42      43       8       9
      10      16      18      38      39       9      10      11      13      38
      39      40      10      11      12      13      14      16      38      39
      40      41      11      12      13      39      40      41      42      12
      13      14      40      41      42      13      14      15      40      41
      42      43      14      15      16      41      42      43      44      15
      16      17      42      43      44      16      17      18      43      44
      45      17      18      43      44      45      46      18      44      45
      46      19      45      46      20      21      22      47      48      49
      50      51      21      22      23      47      48      49      50      51
      22      23      24      47      48      49      50      51      52      53
      23      24      25      48      49      50      51      52      53      54
      55      24      25      26      50      51      52      53      54      55
      25      26      27      52      53      54      55      56      57      26
      27      28      52      53      54      55      56      57      58      59
      27      28      29      54      55      56      57      58      59      28
      29      30      56      57      58      59      60      61      29      30
      31      56      57      58      59      60      61      62      63      30
      31      32      58      59      60      61      62      63      31      32
      33      60      61      62      63      64      65      32      33      34
      60      61      62      63      64      65      66      67      33      34
      35      62      63      64      65      66      67      34      35      36
      64      65      66      67      68      69      35      36      37      64
      65      66      67      68      69      36      37      66      67      68
      69      70      37      68      69      70      68      69      70      39
       0      41      42       0      44       0      46       0      48      49
      49      50      51      50      51      51       0      53      54      55
      54      55      55       0      57      58      59      58      59      59
       0      61      62      63      62      63      63       0      65      66
      67      66      67      67       0      69       0       0
%FLAG HBOND_ACOEF                                                               
%FORMAT(5E16.8)                                                                 

%FLAG HBOND_BCOEF                                                               
%FORMAT(5E16.8)                                                                 

%FLAG HBCUT                                                                     
%FORMAT(5E16.8)                                                                 

%FLAG AMBER_ATOM_TYPE                                                           
%FORMAT(20a4)                                                                   
o   c   ca  ca  ca  ca  ca  ca  ca  ca  ca  ca  ca  ca  ca  ca  ca  ca  ns  c3  
c3  os  c3  c3  os  c3  c3  os  c3  c3  os  c3  c3  os  c3  c1  c1  ha  ha  ha  
ha  ha  ha  ha  ha  ha  hn  h1  h1  h1  h1  h1  h1  h1  h1  h1  h1  h1  h1  h1  
h1  h1  h1  h1  h1  h1  h1  h1  h1  ha  
%FLAG TREE_CHAIN_CLASSIFICATION                                                 
%FORMAT(20a4)                                                                   
BLA BLA BLA BLA BLA BLA BLA BLA BLA BLA BLA BLA BLA BLA BLA BLA BLA BLA BLA BLA 
BLA BLA BLA BLA BLA BLA BLA BLA BLA BLA BLA BLA BLA BLA BLA BLA BLA BLA BLA BLA 
BLA BLA BLA BLA BLA BLA BLA BLA BLA BLA BLA BLA BLA BLA BLA BLA BLA BLA BLA BLA 
BLA BLA BLA BLA BLA BLA BLA BLA BLA BLA 
%FLAG JOIN_ARRAY                                                                
%FORMAT(10I8)                                                                   
       0       0       0       0       0       0       0       0       0       0
       0       0       0       0       0       0       0       0       0       0
       0       0       0       0       0       0       0       0       0       0
       0       0       0       0       0       0       0       0       0       0
       0       0       0       0       0       0       0       0       0       0
       0       0       0       0       0       0       0       0       0       0
       0       0       0       0       0       0       0       0       0       0
%FLAG IROTAT                                                                    
%FORMAT(10I8)                                                                   
       0       0       0       0       0       0       0       0       0       0
       0       0       0       0       0       0       0       0       0       0
       0       0       0       0       0       0       0       0       0       0
       0       0       0       0       0       0       0       0       0       0
       0       0       0       0       0       0       0       0       0       0
       0       0       0       0       0       0       0       0       0       0
       0       0       0       0       0       0       0       0       0       0
%FLAG RADIUS_SET                                                                
%FORMAT(1a80)                                                                   
modified Bondi radii (mbondi)                                                   
%FLAG RADII                                                                     
%FORMAT(5E16.8)                                                                 
  1.50000000E+00  1.70000000E+00  1.70000000E+00  1.70000000E+00  1.70000000E+00
  1.70000000E+00  1.70000000E+00  1.70000000E+00  1.70000000E+00  1.70000000E+00
  1.70000000E+00  1.70000000E+00  1.70000000E+00  1.70000000E+00  1.70000000E+00
  1.70000000E+00  1.70000000E+00  1.70000000E+00  1.55000000E+00  1.70000000E+00
  1.70000000E+00  1.50000000E+00  1.70000000E+00  1.70000000E+00  1.50000000E+00
  1.70000000E+00  1.70000000E+00  1.50000000E+00  1.70000000E+00  1.70000000E+00
  1.50000000E+00  1.70000000E+00  1.70000000E+00  1.50000000E+00  1.70000000E+00
  1.70000000E+00  1.70000000E+00  1.30000000E+00  1.30000000E+00  1.30000000E+00
  1.30000000E+00  1.30000000E+00  1.30000000E+00  1.30000000E+00  1.30000000E+00
  1.30000000E+00  1.30000000E+00  1.30000000E+00  1.30000000E+00  1.30000000E+00
  1.30000000E+00  1.30000000E+00  1.30000000E+00  1.30000000E+00  1.30000000E+00
  1.30000000E+00  1.30000000E+00  1.30000000E+00  1.30000000E+00  1.30000000E+00
  1.30000000E+00  1.30000000E+00  1.30000000E+00  1.30000000E+00  1.30000000E+00
  1.30000000E+00  1.30000000E+00  1.30000000E+00  1.30000000E+00  1.30000000E+00
%FLAG SCREEN                                                                    
%FORMAT(5E16.8)                                                                 
  8.50000000E-01  7.20000000E-01  7.20000000E-01  7.20000000E-01  7.20000000E-01
  7.20000000E-01  7.20000000E-01  7.20000000E-01  7.20000000E-01  7.20000000E-01
  7.20000000E-01  7.20000000E-01  7.20000000E-01  7.20000000E-01  7.20000000E-01
  7.20000000E-01  7.20000000E-01  7.20000000E-01  7.90000000E-01  7.20000000E-01
  7.20000000E-01  8.50000000E-01  7.20000000E-01  7.20000000E-01  8.50000000E-01
  7.20000000E-01  7.20000000E-01  8.50000000E-01  7.20000000E-01  7.20000000E-01
  8.50000000E-01  7.20000000E-01  7.20000000E-01  8.50000000E-01  7.20000000E-01
  7.20000000E-01  7.20000000E-01  8.50000000E-01  8.50000000E-01  8.50000000E-01
  8.50000000E-01  8.50000000E-01  8.50000000E-01  8.50000000E-01  8.50000000E-01
  8.50000000E-01  8.50000000E-01  8.50000000E-01  8.50000000E-01  8.50000000E-01
  8.50000000E-01  8.50000000E-01  8.50000000E-01  8.50000000E-01  8.50000000E-01
  8.50000000E-01  8.50000000E-01  8.50000000E-01  8.50000000E-01  8.50000000E-01
  8.50000000E-01  8.50000000E-01  8.50000000E-01  8.50000000E-01  8.50000000E-01
  8.50000000E-01  8.50000000E-01  8.50000000E-01  8.50000000E-01  8.50000000E-01
%FLAG IPOL                                                                      
%FORMAT(1I8)                                                                    
       0
