PYR
    26
  -3.4130000  -0.8330000  -0.0690000  -3.0230000   0.5060000  -0.0740000
  -1.6650000   0.8540000  -0.0460000  -0.6880000  -0.1680000  -0.0140000
  -1.0850000  -1.5260000  -0.0100000  -2.4510000  -1.8420000  -0.0380000
  -0.1030000  -2.5250000   0.0220000   1.2540000  -2.1940000   0.0500000
   1.6650000  -0.8540000   0.0460000   3.0230000  -0.5060000   0.0740000
   3.4130000   0.8330000   0.0690000   2.4510000   1.8420000   0.0380000
   1.0850000   1.5260000   0.0100000   0.6880000   0.1680000   0.0140000
   0.1030000   2.5250000  -0.0220000  -1.2540000   2.1940000  -0.0500000
  -4.4690000  -1.0910000  -0.0910000  -3.7890000   1.2770000  -0.0990000
  -2.7760000  -2.8800000  -0.0350000  -0.3870000  -3.5750000   0.0260000
   1.9890000  -2.9950000   0.0750000   3.7890000  -1.2770000   0.0990000
   4.4690000   1.0910000   0.0910000   2.7760000   2.8800000   0.0350000
   0.3870000   3.5750000  -0.0260000  -1.9890000   2.9950000  -0.0750000
