%VERSION  VERSION_STAMP = V0001.000  DATE = 08/19/26  14:30:27                  
%FLAG TITLE                                                                     
%FORMAT(20a4)                                                                   
PYR                                                                             
%FLAG POINTERS                                                                  
%FORMAT(10I8)                                                                   
      26       2      10      19      20      28      44      48       0       0
     146       1      19      28      48       2       2       2       2       0
       0       0       0       0       0       0       0       0      26       0
       0
%FLAG ATOM_NAME                                                                 
%FORMAT(20a4)                                                                   
C1  C2  C3  C4  C5  C6  C7  C8  C9  C10 C11 C12 C13 C14 C15 C16 H1  H2  H3  H4  
H5  H6  H7  H8  H9  H10 
%FLAG CHARGE                                                                    
%FORMAT(5E16.8)                                                                 
 -2.31423210E+00 -2.07734220E+00 -6.01335900E-01 -2.73334500E-01 -6.01335900E-01
 -2.07734220E+00 -2.09556450E+00 -2.09556450E+00 -6.01335900E-01 -2.07734220E+00
 -2.31423210E+00 -2.07734220E+00 -6.01335900E-01 -2.73334500E-01 -2.09556450E+00
 -2.09556450E+00  2.41992144E+00  2.43814374E+00  2.43814374E+00  2.41992144E+00
  2.41992144E+00  2.43814374E+00  2.41992144E+00  2.43814374E+00  2.41992144E+00
  2.41992144E+00
%FLAG ATOMIC_NUMBER                                                             
%FORMAT(10I8)                                                                   
       6       6       6       6       6       6       6       6       6       6
       6       6       6       6       6       6       1       1       1       1
       1       1       1       1       1       1
%FLAG MASS                                                                      
%FORMAT(5E16.8)                                                                 
  1.20100000E+01  1.20100000E+01  1.20100000E+01  1.20100000E+01  1.20100000E+01
  1.20100000E+01  1.20100000E+01  1.20100000E+01  1.20100000E+01  1.20100000E+01
  1.20100000E+01  1.20100000E+01  1.20100000E+01  1.20100000E+01  1.20100000E+01
  1.20100000E+01  1.00800000E+00  1.00800000E+00  1.00800000E+00  1.00800000E+00
  1.00800000E+00  1.00800000E+00  1.00800000E+00  1.00800000E+00  1.00800000E+00
  1.00800000E+00
%FLAG ATOM_TYPE_INDEX                                                           
%FORMAT(10I8)                                                                   
       1       1       1       1       1       1       1       1       1       1
       1       1       1       1       1       1       2       2       2       2
       2       2       2       2       2       2
%FLAG NUMBER_EXCLUDED_ATOMS                                                     
%FORMAT(10I8)                                                                   
      10      11      13      15      11       7       7       8      10       8
       7       8       7       6       4       3       2       1       1       1
       1       1       1       1       1       1
%FLAG NONBONDED_PARM_INDEX                                                      
%FORMAT(10I8)                                                                   
       1       2       2       3
%FLAG RESIDUE_LABEL                                                             
%FORMAT(20a4)                                                                   
PYR 
%FLAG RESIDUE_POINTER                                                           
%FORMAT(10I8)                                                                   
       1
%FLAG BOND_FORCE_CONSTANT                                                       
%FORMAT(5E16.8)                                                                 
  3.54250000E+02  3.60690000E+02
%FLAG BOND_EQUIL_VALUE                                                          
%FORMAT(5E16.8)                                                                 
  1.39860000E+00  1.08600000E+00
%FLAG ANGLE_FORCE_CONSTANT                                                      
%FORMAT(5E16.8)                                                                 
  6.36700000E+01  4.49000000E+01
%FLAG ANGLE_EQUIL_VALUE                                                         
%FORMAT(5E16.8)                                                                 
  2.09474507E+00  2.09230160E+00
%FLAG DIHEDRAL_FORCE_CONSTANT                                                   
%FORMAT(5E16.8)                                                                 
  3.62500000E+00  1.10000000E+00
%FLAG DIHEDRAL_PERIODICITY                                                      
%FORMAT(5E16.8)                                                                 
  2.00000000E+00  2.00000000E+00
%FLAG DIHEDRAL_PHASE                                                            
%FORMAT(5E16.8)                                                                 
  3.14159400E+00  3.14159400E+00
%FLAG SCEE_SCALE_FACTOR                                                         
%FORMAT(5E16.8)                                                                 
  1.20000000E+00  0.00000000E+00
%FLAG SCNB_SCALE_FACTOR                                                         
%FORMAT(5E16.8)                                                                 
  2.00000000E+00  0.00000000E+00
%FLAG SOLTY                                                                     
%FORMAT(5E16.8)                                                                 
  0.00000000E+00  0.00000000E+00
%FLAG LENNARD_JONES_ACOEF                                                       
%FORMAT(5E16.8)                                                                 
  6.96551276E+05  7.52549148E+04  6.90855956E+03
%FLAG LENNARD_JONES_BCOEF                                                       
%FORMAT(5E16.8)                                                                 
  5.24668528E+02  1.09570372E+02  2.10929191E+01
%FLAG BONDS_INC_HYDROGEN                                                        
%FORMAT(10I8)                                                                   
       0      48       2       3      51       2      15      54       2      18
      57       2      21      60       2      27      63       2      30      66
       2      33      69       2      42      72       2      45      75       2
%FLAG BONDS_WITHOUT_HYDROGEN                                                    
%FORMAT(10I8)                                                                   
       0       3       1       0      15       1       3       6       1       6
       9       1       6      45       1       9      12       1       9      39
       1      12      15       1      12      18       1      18      21       1
      21      24       1      24      27       1      24      39       1      27
      30       1      30      33       1      33      36       1      36      39
       1      36      42       1      42      45       1
%FLAG ANGLES_INC_HYDROGEN                                                       
%FORMAT(10I8)                                                                   
       0       3      51       2       0      15      54       2       3       0
      48       2       6       3      51       2       6      45      75       2
      12      15      54       2      12      18      57       2      15       0
      48       2      18      21      60       2      21      18      57       2
      24      21      60       2      24      27      63       2      27      30
      66       2      30      27      63       2      30      33      69       2
      33      30      66       2      36      33      69       2      36      42
      72       2      42      45      75       2      45      42      72       2
%FLAG ANGLES_WITHOUT_HYDROGEN                                                   
%FORMAT(10I8)                                                                   
       0       3       6       1       0      15      12       1       3       0
      15       1       3       6       9       1       3       6      45       1
       6       9      12       1       6       9      39       1       6      45
      42       1       9       6      45       1       9      12      15       1
       9      12      18       1       9      39      36       1       9      39
      24       1      12       9      39       1      12      18      21       1
      15      12      18       1      18      21      24       1      21      24
      27       1      21      24      39       1      24      27      30       1
      24      39      36       1      27      24      39       1      27      30
      33       1      30      33      36       1      33      36      39       1
      33      36      42       1      36      42      45       1      39      36
      42       1
%FLAG DIHEDRALS_INC_HYDROGEN                                                    
%FORMAT(10I8)                                                                   
       3       0      15      54       1       3       6      45      75       1
      48       0       3       6       1       6      45      42      72       1
       9       6       3      51       1       9       6      45      75       1
       9      12      15      54       1       9      12      18      57       1
      48       0      15      12       1      12      18      21      60       1
      15      12      18      57       1      15       0       3      51       1
      18      12      15      54       1      21      24      27      63       1
      24      21      18      57       1      24      27      30      66       1
      27      24      21      60       1      27      30      33      69       1
      33      30      27      63       1      33      36      42      72       1
      36      33      30      66       1      36      42      45      75       1
      39      36      33      69       1      39      36      42      72       1
      39      24      21      60       1      39      24      27      63       1
      42      36      33      69       1      45       6       3      51       1
      48       0       3      51       1      48       0      15      54       1
      57      18      21      60       1      63      27      30      66       1
      66      30      33      69       1      72      42      45      75       1
      48       0     -15      -3       2       0       6      -3     -51       2
       0      12     -15     -54       2      12      21     -18     -57       2
      18      24     -21     -60       2      24      30     -27     -63       2
      27      33     -30     -66       2      30      36     -33     -69       2
      36      45     -42     -72       2       6      42     -45     -75       2
%FLAG DIHEDRALS_WITHOUT_HYDROGEN                                                
%FORMAT(10I8)                                                                   
       0       3       6       9       1       0       3       6      45       1
       0      15     -12       9       1       0      15      12      18       1
       3       0      15      12       1       3       6      -9      12       1
       3       6       9      39       1       3       6      45      42       1
      15       0       3       6       1       6       9     -12      15       1
       6       9      12      18       1       6       9      39      36       1
       6       9      39      24       1       6      45     -42      36       1
       9       6      45      42       1       9      12      18      21       1
       9      39      36      33       1       9      39     -36      42       1
       9      39     -24      21       1       9      39      24      27       1
      12       9       6      45       1      12       9      39      36       1
      12       9      39      24       1      12      18     -21      24       1
      15      12       9      39       1      15      12      18      21       1
      18      12       9      39       1      18      21      24      27       1
      18      21     -24      39       1      21      24      27      30       1
      21      24      39      36       1      24      27      30      33       1
      24      39     -36      33       1      24      39      36      42       1
      27      24      39      36       1      27      30     -33      36       1
      30      27      24      39       1      30      33     -36      39       1
      30      33      36      42       1      33      36      42      45       1
      39      36      42      45       1      39       9      -6      45       1
       3       9      -6     -45       2       6      12      -9     -39       2
       9      15     -12     -18       2      21      27     -24     -39       2
      33      39     -36     -42       2       9      24     -39     -36       2
%FLAG EXCLUDED_ATOMS_LIST                                                       
%FORMAT(10I8)                                                                   
       2       3       4       5       6       7      16      17      18      19
       3       4       5       6      14      15      16      17      18      19
      26       4       5       6       7       9      13      14      15      16
      17      18      25      26       5       6       7       8       9      10
      12      13      14      15      16      18      19      20      26       6
       7       8       9      13      14      16      17      19      20      21
       7       8      14      17      18      19      20       8       9      10
      14      19      20      21       9      10      11      13      14      20
      21      22      10      11      12      13      14      15      20      21
      22      23      11      12      13      14      21      22      23      24
      12      13      14      15      22      23      24      13      14      15
      16      22      23      24      25      14      15      16      23      24
      25      26      15      16      21      22      24      25      16      24
      25      26      18      25      26      18      19       0       0      21
       0      23      24       0      26       0
%FLAG HBOND_ACOEF                                                               
%FORMAT(5E16.8)                                                                 

%FLAG HBOND_BCOEF                                                               
%FORMAT(5E16.8)                                                                 

%FLAG HBCUT                                                                     
%FORMAT(5E16.8)                                                                 

%FLAG AMBER_ATOM_TYPE                                                           
%FORMAT(20a4)                                                                   
ca  ca  ca  ca  ca  ca  ca  ca  ca  ca  ca  ca  ca  ca  ca  ca  ha  ha  ha  ha  
ha  ha  ha  ha  ha  ha  
%FLAG TREE_CHAIN_CLASSIFICATION                                                 
%FORMAT(20a4)                                                                   
BLA BLA BLA BLA BLA BLA BLA BLA BLA BLA BLA BLA BLA BLA BLA BLA BLA BLA BLA BLA 
BLA BLA BLA BLA BLA BLA 
%FLAG JOIN_ARRAY                                                                
%FORMAT(10I8)                                                                   
       0       0       0       0       0       0       0       0       0       0
       0       0       0       0       0       0       0       0       0       0
       0       0       0       0       0       0
%FLAG IROTAT                                                                    
%FORMAT(10I8)                                                                   
       0       0       0       0       0       0       0       0       0       0
       0       0       0       0       0       0       0       0       0       0
       0       0       0       0       0       0
%FLAG RADIUS_SET                                                                
%FORMAT(1a80)                                                                   
modified Bondi radii (mbondi)                                                   
%FLAG RADII                                                                     
%FORMAT(5E16.8)                                                                 
  1.70000000E+00  1.70000000E+00  1.70000000E+00  1.70000000E+00  1.70000000E+00
  1.70000000E+00  1.70000000E+00  1.70000000E+00  1.70000000E+00  1.70000000E+00
  1.70000000E+00  1.70000000E+00  1.70000000E+00  1.70000000E+00  1.70000000E+00
  1.70000000E+00  1.30000000E+00  1.30000000E+00  1.30000000E+00  1.30000000E+00
  1.30000000E+00  1.30000000E+00  1.30000000E+00  1.30000000E+00  1.30000000E+00
  1.30000000E+00
%FLAG SCREEN                                                                    
%FORMAT(5E16.8)                                                                 
  7.20000000E-01  7.20000000E-01  7.20000000E-01  7.20000000E-01  7.20000000E-01
  7.20000000E-01  7.20000000E-01  7.20000000E-01  7.20000000E-01  7.20000000E-01
  7.20000000E-01  7.20000000E-01  7.20000000E-01  7.20000000E-01  7.20000000E-01
  7.20000000E-01  8.50000000E-01  8.50000000E-01  8.50000000E-01  8.50000000E-01
  8.50000000E-01  8.50000000E-01  8.50000000E-01  8.50000000E-01  8.50000000E-01
  8.50000000E-01
%FLAG IPOL                                                                      
%FORMAT(1I8)                                                                    
       0
